22
 energy: -54.396426031795 gnorm: 0.000225693030 xtb: 6.4.1 (025e99ea0bd20707e8cccc6e19fe66a0758c6dd1)
F         4.05465561798463    2.28514341036695    0.26496488533106
C         3.15484719662228    1.30069591008651    0.20950008710005
C         3.60465527655727   -0.03109207061327    0.06436076475688
F         4.91684175949706   -0.25591900551799   -0.01305104346630
C         2.70641338301724   -1.06800061527499    0.00479731446853
F         3.14500650223935   -2.31739250554071   -0.13218393398559
C         1.30993322358880   -0.83205366378820    0.08674918429022
C         0.85477607046930    0.51978772219882    0.23242155560751
C         1.81186490930874    1.55991241560274    0.29038404457190
F         1.37696335764544    2.82025054318068    0.42758249208912
C        -0.52605690013364    0.77545703533281    0.31331899819828
C        -1.36168898965938   -0.31171328598442    0.24637937900524
C        -0.78853819988649   -1.61510572611278    0.10234088202252
N         0.48524223055393   -1.88534912573771    0.02373275204765
O        -1.76570421005351   -2.52077901656023    0.05922835625258
N        -2.96784259818423   -1.86655552879828    0.16837609496651
C        -2.77365862423929   -0.59241565275330    0.27794066540921
C        -3.88188462052683    0.37766390893936    0.41289202283811
H        -0.89136624815742    1.78543176969202    0.42260512916890
H        -3.79858813472896    0.90724138774974    1.36065629512774
H        -4.83151137766625   -0.14638286444591    0.37308199901914
H        -3.83435962424808    1.11117295797816   -0.39005192481917
