13
 energy: -14.723956709706 gnorm: 0.000620088825 xtb: 6.4.1 (025e99ea0bd20707e8cccc6e19fe66a0758c6dd1)
C         0.16807731573756    0.22239829622242    0.01301584210396
C        -0.91764676464028   -0.54364782471285   -0.07649943573430
C        -2.31051099833940   -0.03106694109456   -0.20153190841142
C         1.51169892721470   -0.29532293219271    0.13246750071097
C         2.59389702677057    0.47072484813342    0.22539626075180
H         0.07005494091816    1.30073223925254   -0.00182049344371
H        -0.81609657272260   -1.62177364420377   -0.06149007737479
H        -2.76750809204841   -0.40184780746367   -1.12015820171918
H        -2.32851519542096    1.05608502616718   -0.21426904706488
H        -2.91891194244651   -0.38455442338438    0.63161219647340
H         1.60722279922829   -1.37393144041426    0.14333180250569
H         3.58311898785197    0.05560986715886    0.31337482490143
H         2.52511956789684    1.54659473653183    0.21657073630107
