49
 energy: -61.091613675501 gnorm: 0.000067060215 xtb: 6.4.1 (025e99ea0bd20707e8cccc6e19fe66a0758c6dd1)
C        -3.18607760497915    2.91777113243949    0.80582546822093
C        -3.61634068016682    1.47726836418556    0.72437281846607
C        -2.78280489873451    0.50716893168869    0.30295734363785
C        -3.22553263556803   -0.94971317879478    0.22385037819444
C        -4.76024105300340   -1.00314129046312    0.15113922157436
C        -5.40284182554162   -0.22443697840877    1.28689154578066
C        -5.03676291163339    1.24712967981802    1.15024160691288
C        -2.69092672317080   -1.61409276008996   -1.05160356022228
C        -2.74288041062571   -1.73482301572765    1.45418935978790
C        -1.44432877691087    0.88489769549901   -0.12460278550861
C        -0.29707972840062    0.20254433260921    0.04826180830158
C         1.00097312889836    0.61874338307388   -0.41344440260903
C         2.07009632856872   -0.17868815092162   -0.13621049942083
C         3.42746276452542    0.02691038049357   -0.49817629141218
C         4.40644992649886   -0.85720396105045   -0.18428148030273
C         5.79642281254082   -0.73619627956408   -0.51638381174730
C         6.63992967126202   -1.73630186418109   -0.14237489627976
C         8.05860885528853   -1.83193491206625   -0.37328504430198
O         8.74596977885737   -2.76453970734306   -0.01150174960294
C         6.23666003262825    0.48709190894751   -1.26119934746445
C         1.10338620115805    1.90088859996221   -1.18194920901826
H        -2.29668463878552    3.02851699781636    1.42391747170182
H        -2.95551727002854    3.31160634800801   -0.18491045310301
H        -3.97789795486447    3.52903128883051    1.23144522621262
H        -5.08629861310637   -0.57451323525055   -0.79972416745846
H        -5.08508038955498   -2.04523937416905    0.17566669281305
H        -6.48815338658287   -0.34170259284277    1.26032955459238
H        -5.05334489593922   -0.61002221088910    2.24478272675665
H        -5.21934402109751    1.76869604112060    2.09413958694119
H        -5.68262814538934    1.71784574110894    0.39925139005148
H        -1.60698037086970   -1.66675807851497   -1.05843386069147
H        -3.00898616911945   -1.05600257803807   -1.93012587140640
H        -3.08347363636999   -2.62613414607096   -1.12796071297282
H        -3.30512728974271   -2.66187277555884    1.54893941051680
H        -1.69200037501011   -1.99398015194411    1.36933555669549
H        -2.87248089202808   -1.15414275631729    2.36378117091286
H        -1.39115683845616    1.84404586480187   -0.62187016920160
H        -0.30470100213205   -0.72795904488278    0.59640367787402
H         1.87915128984312   -1.08720185589860    0.42362660827819
H         3.67940364690717    0.92115886459980   -1.04765644790575
H         4.12974472297186   -1.74892690010873    0.36434067064587
H         6.22767348686008   -2.58241669399946    0.39372876153674
H         8.52704465229370   -0.98958489892810   -0.91805278847335
H         5.72231168550353    0.54167708201334   -2.22006961325382
H         5.98456181075556    1.37930843563336   -0.68929990628876
H         7.30478816295960    0.48988085726726   -1.44582550671511
H         0.76476357234251    2.73323939742826   -0.56551853487855
H         2.11962457657516    2.10545337468369   -1.50004818897938
H         0.47064803057245    1.85665668998673   -2.06762575718781
