17
 energy: -22.481317610654 gnorm: 0.000233403346 xtb: 6.4.1 (025e99ea0bd20707e8cccc6e19fe66a0758c6dd1)
C         2.61981056632909    0.42832346006258   -0.02373262070509
N         1.61078872057058   -0.58577661242330    0.15152313557473
C         0.26341774831295   -0.30671389794734    0.07007153877509
C        -0.22806558804039    0.85597660960478   -0.52631616861995
C        -1.59037393041625    1.06102961957129   -0.63913885590499
C        -2.49116394560024    0.12469207701736   -0.16339645859692
C        -2.01246085649005   -1.03166282884881    0.43205145793318
C        -0.65549681209644   -1.24568759280232    0.55021949511059
H         2.50501829267326    1.26743141044309    0.67491043622322
H         2.57986680438198    0.81726997239173   -1.04229475199461
H         3.59880169989875   -0.02135217457733    0.12902727366431
H         1.84277686478976   -1.30818054652032    0.81615689166193
H         0.45246287787182    1.60311127212299   -0.90299103073960
H        -1.95094514312892    1.96824028674889   -1.10286329239852
H        -3.55365063493201    0.29317078940584   -0.25232482858952
H        -2.70348425166043   -1.77078726574506    0.81141759257383
H        -0.28730341246340   -2.14908357850397    1.01767918603224
