24
 energy: -30.476966199472 gnorm: 0.000366184722 xtb: 6.4.1 (025e99ea0bd20707e8cccc6e19fe66a0758c6dd1)
C         2.72024349475188   -1.06073156164718    0.05989011796204
C         1.52494587090375   -0.17409433769337   -0.05907394717538
C         1.56919540315926    1.13004024232896    0.23266668248069
C         0.41367008606146    2.01912239795242    0.12210656693590
O         0.45489792613838    3.18538101561725    0.45442292565904
C        -0.83178296280930    1.39653238747769   -0.47422647563691
C        -0.99950386742657   -0.07810559454639   -0.09798097234769
C         0.26517734591492   -0.83039178669809   -0.53405130758464
C        -2.21700435124442   -0.66061543120779   -0.81868176533447
C        -1.19856453735784   -0.21084992139062    1.41335887273160
H         2.88173643081693   -1.60164903862019   -0.87226980787158
H         2.55639404960183   -1.80085909965536    0.84367382919003
H         3.61396008261242   -0.49101419940518    0.29963021042118
H         2.48146176599649    1.59178830682264    0.58412048304421
H        -1.69980100814143    1.98296341775170   -0.16772161299085
H        -0.73827885177867    1.48692369586501   -1.56143104913220
H         0.22992390996574   -1.86191283191101   -0.17537925188458
H         0.29684405076584   -0.87213569203990   -1.62889123376850
H        -2.33506290546913   -1.71449269386337   -0.57523810798019
H        -2.11153950831169   -0.56772116369511   -1.89773791826793
H        -3.12194797330340   -0.13782519808210   -0.51820985465936
H        -0.34367607310429    0.18806093716242    1.95377513247632
H        -2.08431680633144    0.33678356819826    1.72656583223160
H        -1.32697157141077   -1.25519641872042    1.69068065150183
