21
 energy: -27.301026297987 gnorm: 0.000160823688 xtb: 6.4.1 (025e99ea0bd20707e8cccc6e19fe66a0758c6dd1)
C        -0.45871083684518   -1.06847530098431   -0.89911329416603
C        -1.82394729839237   -1.00453983983021   -0.22567299531937
C        -2.20920453608928    0.45169306497629    0.00767853778364
C        -1.22440267409869    1.09037071770314    0.98232379617277
C         0.19326908166463    0.75098486197618    0.65847795838662
C         0.55653622764127   -0.21431866014820   -0.18983128005153
C         1.96909470751448   -0.53716416546917   -0.49992424354302
O         2.25774000286390   -1.48964639654990   -1.19304976114412
C         3.04104858418837    0.36339852239260    0.07204636385171
H        -0.53592480094483   -0.72759286524589   -1.93630434775999
H        -0.08622765864396   -2.09431611912730   -0.93255744780989
H        -1.78436894029467   -1.52562792812305    0.73327498208533
H        -2.56887841029886   -1.50109685007711   -0.84936716174641
H        -2.17952988530104    0.98701688275342   -0.94350455836329
H        -3.22380468895142    0.52371032403149    0.40334593078951
H        -1.43263958819333    0.74611044054708    2.00186867200152
H        -1.34199410612757    2.17755790600734    0.98851511725334
H         0.93428088884156    1.33632829094461    1.18409878695329
H         2.86919313654159    1.39582342966614   -0.22149380732406
H         4.00965137272390    0.03783119760211   -0.29882727206528
H         3.03882142220140    0.30195348695449    1.15801502401522
